 Gaussian 16, Revision C.01,
 Gaussian 16:  ES64L-G16RevC.01  3-Jul-2019

 --------------------------------------------------------
 #p b3lyp/aug-cc-pvtz nosymm output=wfn force geom=notest
 --------------------------------------------------------

 ------------------
 WD_FSv2_small00000
 ------------------
 Symbolic Z-matrix:
 Charge =  0 Multiplicity = 1

                          Input orientation:
 ---------------------------------------------------------------------
 Center     Atomic      Atomic             Coordinates (Angstroms)
 Number     Number       Type             X           Y           Z
 ---------------------------------------------------------------------
      1          8           0        0.000000    0.000000    0.000000
      2          1           0        0.970947    0.000000    0.000000
      3          1           0       -0.218031    1.026252    0.000000
      4          8           0       -1.826483   -1.395889   -1.604441
      5          1           0       -1.893108   -1.967914   -2.439719
      6          1           0       -1.103226   -0.712339   -1.834729
 ---------------------------------------------------------------------

 SCF Done:  E(RB3LYP) =  -152.920745755     A.U. after    9 cycles

 Alpha  occ. eigenvalues --  -19.15583 -19.12512  -1.01277  -0.97543  -0.52525
 Alpha  occ. eigenvalues --   -0.49578  -0.40532  -0.37440  -0.32997  -0.29652
 Alpha virt. eigenvalues --   -0.03739  -0.00589   0.01482   0.03272   0.07147
 Alpha virt. eigenvalues --    0.08638   0.09107   0.09653   0.11163   0.12022
 Alpha virt. eigenvalues --    0.12344   0.14469   0.15908   0.17172   0.19062

 Mulliken charges:
               1
     1  O   -0.422080
     2  H    0.172492
     3  H    0.251550
     4  O   -0.445286
     5  H    0.201755
     6  H    0.241568
 Sum of Mulliken charges =  -0.00000

 Dipole moment (field-independent basis, Debye):
    X=              2.3127    Y=              1.7623    Z=             -1.2825  Tot=              3.1779
 Quadrupole moment (field-independent basis, Debye-Ang):
   XX=            -15.8997   YY=            -11.7625   ZZ=             -9.4461
   XY=             -1.3315   XZ=              0.6097   YZ=              2.4860

 Normal termination of Gaussian 16 at Tue Dec  5 12:02:18 2023.
